# vtk DataFile Version 3.0
GRASS GIS 7 Export
ASCII
DATASET STRUCTURED_GRID
DIMENSIONS 12 8 5
POINTS 480 float
5.000 75.000 1.000
15.000 75.000 1.000
25.000 75.000 1.000
35.000 75.000 1.000
45.000 75.000 1.000
55.000 75.000 1.000
65.000 75.000 1.000
75.000 75.000 1.000
85.000 75.000 1.000
95.000 75.000 1.000
105.000 75.000 1.000
115.000 75.000 1.000
5.000 65.000 2.000
15.000 65.000 2.000
25.000 65.000 2.000
35.000 65.000 2.000
45.000 65.000 2.000
55.000 65.000 2.000
65.000 65.000 2.000
75.000 65.000 2.000
85.000 65.000 2.000
95.000 65.000 2.000
105.000 65.000 2.000
115.000 65.000 2.000
5.000 55.000 3.000
15.000 55.000 3.000
25.000 55.000 3.000
35.000 55.000 3.000
45.000 55.000 3.000
55.000 55.000 3.000
65.000 55.000 3.000
75.000 55.000 3.000
85.000 55.000 3.000
95.000 55.000 3.000
105.000 55.000 3.000
115.000 55.000 3.000
5.000 45.000 4.000
15.000 45.000 4.000
25.000 45.000 4.000
35.000 45.000 4.000
45.000 45.000 4.000
55.000 45.000 4.000
65.000 45.000 4.000
75.000 45.000 4.000
85.000 45.000 4.000
95.000 45.000 4.000
105.000 45.000 4.000
115.000 45.000 4.000
5.000 35.000 5.000
15.000 35.000 5.000
25.000 35.000 5.000
35.000 35.000 5.000
45.000 35.000 5.000
55.000 35.000 5.000
65.000 35.000 5.000
75.000 35.000 5.000
85.000 35.000 5.000
95.000 35.000 5.000
105.000 35.000 5.000
115.000 35.000 5.000
5.000 25.000 6.000
15.000 25.000 6.000
25.000 25.000 6.000
35.000 25.000 6.000
45.000 25.000 6.000
55.000 25.000 6.000
65.000 25.000 6.000
75.000 25.000 6.000
85.000 25.000 6.000
95.000 25.000 6.000
105.000 25.000 6.000
115.000 25.000 6.000
5.000 15.000 7.000
15.000 15.000 7.000
25.000 15.000 7.000
35.000 15.000 7.000
45.000 15.000 7.000
55.000 15.000 7.000
65.000 15.000 7.000
75.000 15.000 7.000
85.000 15.000 7.000
95.000 15.000 7.000
105.000 15.000 7.000
115.000 15.000 7.000
5.000 5.000 8.000
15.000 5.000 8.000
25.000 5.000 8.000
35.000 5.000 8.000
45.000 5.000 8.000
55.000 5.000 8.000
65.000 5.000 8.000
75.000 5.000 8.000
85.000 5.000 8.000
95.000 5.000 8.000
105.000 5.000 8.000
115.000 5.000 8.000
5.000 75.000 13.500
15.000 75.000 13.500
25.000 75.000 13.500
35.000 75.000 13.500
45.000 75.000 13.500
55.000 75.000 13.500
65.000 75.000 13.500
75.000 75.000 13.500
85.000 75.000 13.500
95.000 75.000 13.500
105.000 75.000 13.500
115.000 75.000 13.500
5.000 65.000 14.500
15.000 65.000 14.500
25.000 65.000 14.500
35.000 65.000 14.500
45.000 65.000 14.500
55.000 65.000 14.500
65.000 65.000 14.500
75.000 65.000 14.500
85.000 65.000 14.500
95.000 65.000 14.500
105.000 65.000 14.500
115.000 65.000 14.500
5.000 55.000 15.500
15.000 55.000 15.500
25.000 55.000 15.500
35.000 55.000 15.500
45.000 55.000 15.500
55.000 55.000 15.500
65.000 55.000 15.500
75.000 55.000 15.500
85.000 55.000 15.500
95.000 55.000 15.500
105.000 55.000 15.500
115.000 55.000 15.500
5.000 45.000 16.500
15.000 45.000 16.500
25.000 45.000 16.500
35.000 45.000 16.500
45.000 45.000 16.500
55.000 45.000 16.500
65.000 45.000 16.500
75.000 45.000 16.500
85.000 45.000 16.500
95.000 45.000 16.500
105.000 45.000 16.500
115.000 45.000 16.500
5.000 35.000 17.500
15.000 35.000 17.500
25.000 35.000 17.500
35.000 35.000 17.500
45.000 35.000 17.500
55.000 35.000 17.500
65.000 35.000 17.500
75.000 35.000 17.500
85.000 35.000 17.500
95.000 35.000 17.500
105.000 35.000 17.500
115.000 35.000 17.500
5.000 25.000 18.500
15.000 25.000 18.500
25.000 25.000 18.500
35.000 25.000 18.500
45.000 25.000 18.500
55.000 25.000 18.500
65.000 25.000 18.500
75.000 25.000 18.500
85.000 25.000 18.500
95.000 25.000 18.500
105.000 25.000 18.500
115.000 25.000 18.500
5.000 15.000 19.500
15.000 15.000 19.500
25.000 15.000 19.500
35.000 15.000 19.500
45.000 15.000 19.500
55.000 15.000 19.500
65.000 15.000 19.500
75.000 15.000 19.500
85.000 15.000 19.500
95.000 15.000 19.500
105.000 15.000 19.500
115.000 15.000 19.500
5.000 5.000 20.500
15.000 5.000 20.500
25.000 5.000 20.500
35.000 5.000 20.500
45.000 5.000 20.500
55.000 5.000 20.500
65.000 5.000 20.500
75.000 5.000 20.500
85.000 5.000 20.500
95.000 5.000 20.500
105.000 5.000 20.500
115.000 5.000 20.500
5.000 75.000 26.000
15.000 75.000 26.000
25.000 75.000 26.000
35.000 75.000 26.000
45.000 75.000 26.000
55.000 75.000 26.000
65.000 75.000 26.000
75.000 75.000 26.000
85.000 75.000 26.000
95.000 75.000 26.000
105.000 75.000 26.000
115.000 75.000 26.000
5.000 65.000 27.000
15.000 65.000 27.000
25.000 65.000 27.000
35.000 65.000 27.000
45.000 65.000 27.000
55.000 65.000 27.000
65.000 65.000 27.000
75.000 65.000 27.000
85.000 65.000 27.000
95.000 65.000 27.000
105.000 65.000 27.000
115.000 65.000 27.000
5.000 55.000 28.000
15.000 55.000 28.000
25.000 55.000 28.000
35.000 55.000 28.000
45.000 55.000 28.000
55.000 55.000 28.000
65.000 55.000 28.000
75.000 55.000 28.000
85.000 55.000 28.000
95.000 55.000 28.000
105.000 55.000 28.000
115.000 55.000 28.000
5.000 45.000 29.000
15.000 45.000 29.000
25.000 45.000 29.000
35.000 45.000 29.000
45.000 45.000 29.000
55.000 45.000 29.000
65.000 45.000 29.000
75.000 45.000 29.000
85.000 45.000 29.000
95.000 45.000 29.000
105.000 45.000 29.000
115.000 45.000 29.000
5.000 35.000 30.000
15.000 35.000 30.000
25.000 35.000 30.000
35.000 35.000 30.000
45.000 35.000 30.000
55.000 35.000 30.000
65.000 35.000 30.000
75.000 35.000 30.000
85.000 35.000 30.000
95.000 35.000 30.000
105.000 35.000 30.000
115.000 35.000 30.000
5.000 25.000 31.000
15.000 25.000 31.000
25.000 25.000 31.000
35.000 25.000 31.000
45.000 25.000 31.000
55.000 25.000 31.000
65.000 25.000 31.000
75.000 25.000 31.000
85.000 25.000 31.000
95.000 25.000 31.000
105.000 25.000 31.000
115.000 25.000 31.000
5.000 15.000 32.000
15.000 15.000 32.000
25.000 15.000 32.000
35.000 15.000 32.000
45.000 15.000 32.000
55.000 15.000 32.000
65.000 15.000 32.000
75.000 15.000 32.000
85.000 15.000 32.000
95.000 15.000 32.000
105.000 15.000 32.000
115.000 15.000 32.000
5.000 5.000 33.000
15.000 5.000 33.000
25.000 5.000 33.000
35.000 5.000 33.000
45.000 5.000 33.000
55.000 5.000 33.000
65.000 5.000 33.000
75.000 5.000 33.000
85.000 5.000 33.000
95.000 5.000 33.000
105.000 5.000 33.000
115.000 5.000 33.000
5.000 75.000 38.500
15.000 75.000 38.500
25.000 75.000 38.500
35.000 75.000 38.500
45.000 75.000 38.500
55.000 75.000 38.500
65.000 75.000 38.500
75.000 75.000 38.500
85.000 75.000 38.500
95.000 75.000 38.500
105.000 75.000 38.500
115.000 75.000 38.500
5.000 65.000 39.500
15.000 65.000 39.500
25.000 65.000 39.500
35.000 65.000 39.500
45.000 65.000 39.500
55.000 65.000 39.500
65.000 65.000 39.500
75.000 65.000 39.500
85.000 65.000 39.500
95.000 65.000 39.500
105.000 65.000 39.500
115.000 65.000 39.500
5.000 55.000 40.500
15.000 55.000 40.500
25.000 55.000 40.500
35.000 55.000 40.500
45.000 55.000 40.500
55.000 55.000 40.500
65.000 55.000 40.500
75.000 55.000 40.500
85.000 55.000 40.500
95.000 55.000 40.500
105.000 55.000 40.500
115.000 55.000 40.500
5.000 45.000 41.500
15.000 45.000 41.500
25.000 45.000 41.500
35.000 45.000 41.500
45.000 45.000 41.500
55.000 45.000 41.500
65.000 45.000 41.500
75.000 45.000 41.500
85.000 45.000 41.500
95.000 45.000 41.500
105.000 45.000 41.500
115.000 45.000 41.500
5.000 35.000 42.500
15.000 35.000 42.500
25.000 35.000 42.500
35.000 35.000 42.500
45.000 35.000 42.500
55.000 35.000 42.500
65.000 35.000 42.500
75.000 35.000 42.500
85.000 35.000 42.500
95.000 35.000 42.500
105.000 35.000 42.500
115.000 35.000 42.500
5.000 25.000 43.500
15.000 25.000 43.500
25.000 25.000 43.500
35.000 25.000 43.500
45.000 25.000 43.500
55.000 25.000 43.500
65.000 25.000 43.500
75.000 25.000 43.500
85.000 25.000 43.500
95.000 25.000 43.500
105.000 25.000 43.500
115.000 25.000 43.500
5.000 15.000 44.500
15.000 15.000 44.500
25.000 15.000 44.500
35.000 15.000 44.500
45.000 15.000 44.500
55.000 15.000 44.500
65.000 15.000 44.500
75.000 15.000 44.500
85.000 15.000 44.500
95.000 15.000 44.500
105.000 15.000 44.500
115.000 15.000 44.500
5.000 5.000 45.500
15.000 5.000 45.500
25.000 5.000 45.500
35.000 5.000 45.500
45.000 5.000 45.500
55.000 5.000 45.500
65.000 5.000 45.500
75.000 5.000 45.500
85.000 5.000 45.500
95.000 5.000 45.500
105.000 5.000 45.500
115.000 5.000 45.500
5.000 75.000 51.000
15.000 75.000 51.000
25.000 75.000 51.000
35.000 75.000 51.000
45.000 75.000 51.000
55.000 75.000 51.000
65.000 75.000 51.000
75.000 75.000 51.000
85.000 75.000 51.000
95.000 75.000 51.000
105.000 75.000 51.000
115.000 75.000 51.000
5.000 65.000 52.000
15.000 65.000 52.000
25.000 65.000 52.000
35.000 65.000 52.000
45.000 65.000 52.000
55.000 65.000 52.000
65.000 65.000 52.000
75.000 65.000 52.000
85.000 65.000 52.000
95.000 65.000 52.000
105.000 65.000 52.000
115.000 65.000 52.000
5.000 55.000 53.000
15.000 55.000 53.000
25.000 55.000 53.000
35.000 55.000 53.000
45.000 55.000 53.000
55.000 55.000 53.000
65.000 55.000 53.000
75.000 55.000 53.000
85.000 55.000 53.000
95.000 55.000 53.000
105.000 55.000 53.000
115.000 55.000 53.000
5.000 45.000 54.000
15.000 45.000 54.000
25.000 45.000 54.000
35.000 45.000 54.000
45.000 45.000 54.000
55.000 45.000 54.000
65.000 45.000 54.000
75.000 45.000 54.000
85.000 45.000 54.000
95.000 45.000 54.000
105.000 45.000 54.000
115.000 45.000 54.000
5.000 35.000 55.000
15.000 35.000 55.000
25.000 35.000 55.000
35.000 35.000 55.000
45.000 35.000 55.000
55.000 35.000 55.000
65.000 35.000 55.000
75.000 35.000 55.000
85.000 35.000 55.000
95.000 35.000 55.000
105.000 35.000 55.000
115.000 35.000 55.000
5.000 25.000 56.000
15.000 25.000 56.000
25.000 25.000 56.000
35.000 25.000 56.000
45.000 25.000 56.000
55.000 25.000 56.000
65.000 25.000 56.000
75.000 25.000 56.000
85.000 25.000 56.000
95.000 25.000 56.000
105.000 25.000 56.000
115.000 25.000 56.000
5.000 15.000 57.000
15.000 15.000 57.000
25.000 15.000 57.000
35.000 15.000 57.000
45.000 15.000 57.000
55.000 15.000 57.000
65.000 15.000 57.000
75.000 15.000 57.000
85.000 15.000 57.000
95.000 15.000 57.000
105.000 15.000 57.000
115.000 15.000 57.000
5.000 5.000 58.000
15.000 5.000 58.000
25.000 5.000 58.000
35.000 5.000 58.000
45.000 5.000 58.000
55.000 5.000 58.000
65.000 5.000 58.000
75.000 5.000 58.000
85.000 5.000 58.000
95.000 5.000 58.000
105.000 5.000 58.000
115.000 5.000 58.000
POINT_DATA 480
SCALARS volume_null float 1
LOOKUP_TABLE default
3.000 4.000 5.000 6.000 7.000 8.000 9.000 10.000 11.000 12.000 13.000 14.000 
0.000 0.000 0.000 0.000 0.000 0.000 0.000 0.000 0.000 0.000 0.000 0.000 
5.000 6.000 7.000 8.000 9.000 10.000 11.000 12.000 13.000 14.000 15.000 16.000 
6.000 7.000 8.000 9.000 10.000 11.000 12.000 13.000 14.000 15.000 16.000 17.000 
7.000 8.000 9.000 10.000 11.000 12.000 13.000 14.000 15.000 16.000 17.000 18.000 
8.000 9.000 10.000 11.000 12.000 13.000 14.000 15.000 16.000 17.000 18.000 19.000 
0.000 0.000 0.000 0.000 0.000 0.000 0.000 0.000 0.000 0.000 0.000 0.000 
10.000 11.000 12.000 13.000 14.000 15.000 16.000 17.000 18.000 19.000 20.000 21.000 
4.000 5.000 6.000 7.000 8.000 9.000 10.000 11.000 12.000 13.000 14.000 15.000 
0.000 0.000 0.000 0.000 0.000 0.000 0.000 0.000 0.000 0.000 0.000 0.000 
6.000 7.000 8.000 9.000 10.000 11.000 12.000 13.000 14.000 15.000 16.000 17.000 
7.000 8.000 9.000 10.000 11.000 12.000 13.000 14.000 15.000 16.000 17.000 18.000 
8.000 9.000 10.000 11.000 12.000 13.000 14.000 15.000 16.000 17.000 18.000 19.000 
9.000 10.000 11.000 12.000 13.000 14.000 15.000 16.000 17.000 18.000 19.000 20.000 
0.000 0.000 0.000 0.000 0.000 0.000 0.000 0.000 0.000 0.000 0.000 0.000 
11.000 12.000 13.000 14.000 15.000 16.000 17.000 18.000 19.000 20.000 21.000 22.000 
5.000 6.000 7.000 8.000 9.000 10.000 11.000 12.000 13.000 14.000 15.000 16.000 
0.000 0.000 0.000 0.000 0.000 0.000 0.000 0.000 0.000 0.000 0.000 0.000 
7.000 8.000 9.000 10.000 11.000 12.000 13.000 14.000 15.000 16.000 17.000 18.000 
8.000 9.000 10.000 11.000 12.000 13.000 14.000 15.000 16.000 17.000 18.000 19.000 
9.000 10.000 11.000 12.000 13.000 14.000 15.000 16.000 17.000 18.000 19.000 20.000 
10.000 11.000 12.000 13.000 14.000 15.000 16.000 17.000 18.000 19.000 20.000 21.000 
0.000 0.000 0.000 0.000 0.000 0.000 0.000 0.000 0.000 0.000 0.000 0.000 
12.000 13.000 14.000 15.000 16.000 17.000 18.000 19.000 20.000 21.000 22.000 23.000 
6.000 7.000 8.000 9.000 10.000 11.000 12.000 13.000 14.000 15.000 16.000 17.000 
0.000 0.000 0.000 0.000 0.000 0.000 0.000 0.000 0.000 0.000 0.000 0.000 
8.000 9.000 10.000 11.000 12.000 13.000 14.000 15.000 16.000 17.000 18.000 19.000 
9.000 10.000 11.000 12.000 13.000 14.000 15.000 16.000 17.000 18.000 19.000 20.000 
10.000 11.000 12.000 13.000 14.000 15.000 16.000 17.000 18.000 19.000 20.000 21.000 
11.000 12.000 13.000 14.000 15.000 16.000 17.000 18.000 19.000 20.000 21.000 22.000 
0.000 0.000 0.000 0.000 0.000 0.000 0.000 0.000 0.000 0.000 0.000 0.000 
13.000 14.000 15.000 16.000 17.000 18.000 19.000 20.000 21.000 22.000 23.000 24.000 
7.000 8.000 9.000 10.000 11.000 12.000 13.000 14.000 15.000 16.000 17.000 18.000 
0.000 0.000 0.000 0.000 0.000 0.000 0.000 0.000 0.000 0.000 0.000 0.000 
9.000 10.000 11.000 12.000 13.000 14.000 15.000 16.000 17.000 18.000 19.000 20.000 
10.000 11.000 12.000 13.000 14.000 15.000 16.000 17.000 18.000 19.000 20.000 21.000 
11.000 12.000 13.000 14.000 15.000 16.000 17.000 18.000 19.000 20.000 21.000 22.000 
12.000 13.000 14.000 15.000 16.000 17.000 18.000 19.000 20.000 21.000 22.000 23.000 
0.000 0.000 0.000 0.000 0.000 0.000 0.000 0.000 0.000 0.000 0.000 0.000 
14.000 15.000 16.000 17.000 18.000 19.000 20.000 21.000 22.000 23.000 24.000 25.000 
